LAMMPS data file via write_data, version 15 Sep 2022, timestep = 40358

10074 atoms
50 atom types
10419 bonds
31 bond types
18699 angles
53 angle types
32844 dihedrals
44 dihedral types

-24.30555093357622 24.30555093357622 xlo xhi
-24.30555093357622 24.30555093357622 ylo yhi
-24.30555093357622 24.30555093357622 zlo zhi

Masses

1 12.01
2 16
3 16
4 12.01
5 1.008
6 1.008
7 1.008
8 1.008
9 12.01
10 12.01
11 12.01
12 16
13 1.008
14 1.008
15 1.008
16 1.008
17 12.01
18 16
19 14.01
20 1.008
21 1.008
22 1.008
23 12.01
24 12.01
25 14.01
26 1.008
27 1.008
28 1.008
29 12.01
30 14.01
31 1.008
32 12.01
33 16
34 14.01
35 16
36 12.01
37 1.008
38 1.008
39 1.008
40 1.008
41 14.01
42 1.008
43 12.01
44 12.01
45 12.01
46 1.008
47 12.01
48 1.008
49 16
50 12.01

Pair Coeffs # lj/cut/coul/cut

1 0.1094 3.39967
2 0.2104 3.06647
3 0.17 3.00001
4 0.086 3.39967
5 0.0157 2.64953
6 0.0157 2.47135
7 0 0
8 0.015 2.59964
9 0.1094 3.39967
10 0.1094 3.39967
11 0.1094 3.39967
12 0.2104 3.06647
13 0.0157 2.47135
14 0.0157 2.64953
15 0.0157 2.64953
16 0.0157 2.64953
17 0.1094 3.39967
18 0.17 3.00001
19 0.17 3.25
20 0.0157 2.64953
21 0.0157 2.47135
22 0.0157 1.06908
23 0.1094 3.39967
24 0.1094 3.39967
25 0.17 3.25
26 0.0157 2.47135
27 0.0157 2.47135
28 0.0157 1.06908
29 0.086 3.39967
30 0.17 3.25
31 0.015 2.59964
32 0.1094 3.39967
33 0.17 3.00001
34 0.17 3.25
35 0.2104 3.06647
36 0.086 3.39967
37 0.0157 2.64953
38 0.0157 2.47135
39 0 0
40 0.015 2.59964
41 0.17 3.25
42 0.0157 2.47135
43 0.1094 3.39967
44 0.1094 3.39967
45 0.1094 3.39967
46 0.0157 2.47135
47 0.1094 3.39967
48 0.0157 2.47135
49 0.2104 3.06647
50 0.1094 3.39967

Bond Coeffs # harmonic

1 300.9 1.5375
2 330.6 1.0969
3 316.7 1.4233
4 330.6 1.0969
5 371.4 0.973
6 308.6 1.4316
7 376.6 1.3696
8 461.1 1.398
9 345.8 1.086
10 321 1.5156
11 300.9 1.5375
12 330.6 1.0969
13 325.9 1.4647
14 330.6 1.0969
15 308.6 1.4316
16 392.4 1.019
17 461.1 1.3984
18 345.8 1.086
19 389.3 1.4079
20 389.3 1.4079
21 722.4 1.2632
22 300.9 1.5375
23 330.6 1.0969
24 308.6 1.4316
25 330.6 1.0969
26 325.9 1.4647
27 316.7 1.4233
28 371.4 0.973
29 376.6 1.3696
30 461.1 1.3984
31 345.8 1.086

Angle Coeffs # harmonic

1 67.5 110.19
2 62.9 111.51
3 46.4 109.56
4 46.3 109.8
5 47.4 107.26
6 68 107.97
7 50.9 110.26
8 62.5 117.96
9 50.8 109.78
10 69.6 119.2
11 66.6 120.02
12 48.2 119.88
13 63.5 120.77
14 63.1 112.07
15 63.6 112.24
16 39.4 107.58
17 39.2 108.46
18 62.9 111.51
19 46.3 109.8
20 66 111.04
21 46.4 109.56
22 68 107.97
23 47.4 109.29
24 62.7 112.48
25 50.8 109.78
26 49.5 109.88
27 39.4 107.58
28 39.2 108.46
29 41.4 106.4
30 66.6 120.02
31 48.2 119.88
32 67.8 120.61
33 70.4 115.17
34 67.8 120.61
35 70.4 115.17
36 46.3 109.8
37 68 107.97
38 46.4 109.56
39 62.9 111.51
40 62.7 112.48
41 50.8 109.78
42 66 111.04
43 63.8 112.35
44 49.5 109.88
45 67.5 110.19
46 47.4 107.26
47 50.9 110.26
48 62.5 117.96
49 69.6 119.2
50 66.6 120.02
51 48.2 119.88
52 39.4 107.58
53 39.2 108.46

Dihedral Coeffs # harmonic

1 0.25 1 1
2 0.16 1 3
3 0.155556 1 3
4 0.383333 1 3
5 0 1 3
6 1.175 1 2
7 0.144 1 3
8 0.9 -1 2
9 3.625 -1 2
10 0 1 2
11 0.166667 1 3
12 1.1 -1 2
13 0.155556 1 3
14 0.3 1 3
15 0.1 -1 2
16 0.383 1 3
17 0.16 1 3
18 0.383333 1 3
19 0.25 1 1
20 0 1 3
21 1.175 1 2
22 0.144 1 3
23 0.15 1 3
24 3.625 -1 2
25 0 -1 3
26 2.8 1 1
27 3 -1 2
28 1.1 -1 2
29 0.1 -1 2
30 0.383 1 3
31 0.155556 1 3
32 0.16 1 3
33 0.383333 1 3
34 0.25 1 1
35 0 1 3
36 0.48 -1 2
37 0.3 1 3
38 1.175 1 2
39 0.144 1 3
40 0.9 -1 2
41 3.625 -1 2
42 0.15 1 3
43 0.166667 1 3
44 1.1 -1 2

Atoms # full

3128 62 5 0.0422 -22.26514766397537 -20.196400054730777 -22.320526424000594 0 0 1
3135 62 1 -0.0354 -21.12265710071845 -19.57295331289905 -20.580816004882575 0 0 1
3162 62 8 0.06525 -19.61678970615449 -21.662972731649717 -21.032486505497538 0 0 1
3131 62 4 -0.0263 -19.747501086057298 -19.602027029486436 -21.11632581102473 0 0 1
3132 62 1 -0.0216 -22.035865477319383 -20.46124177550411 -21.35131548349237 0 0 1
3130 62 5 0.0422 -22.971636633944335 -20.441328180103174 -20.77704173855279 0 0 1
3134 62 5 0.0422 -21.670419071777822 -21.563418426075515 -21.300548370012635 0 0 1
3133 62 5 0.0422 -22.12738937373352 -19.59692320555768 -18.8101501463626 0 0 1
3137 62 5 0.0422 -20.981366346446578 -20.966154751961383 -18.81157799422978 0 0 1
3136 62 1 -0.0216 -21.14212626567813 -19.92240020997774 -19.096833936791384 0 0 1
3129 62 4 -0.0955 -19.063094884499165 -20.796043013159185 -21.32873721606482 0 0 1
3114 62 4 -0.0955 -18.84578401608944 -18.50441572929404 -20.96859974873281 0 0 1
3160 62 8 0.162999875 -17.259436096314577 -21.894158268197437 -21.453336957578152 0 0 1
3161 62 4 -0.17 -17.73800127377205 -20.93774832807817 -21.52265658101127 0 0 1
2365 47 5 0.0422 -17.850305190845372 -19.827306663953188 -17.253359111351543 0 1 0
9356 191 17 0.1059 3.6844100943828266 -23.99373565656408 -11.321665495876687 0 1 0
3058 60 8 0.162999875 -6.423059225823742 -12.234204190342036 -24.183247112019533 -1 0 0
1771 35 49 -0.4123 18.12251757200196 -0.17899975372193566 -24.02498325112281 0 0 1
3158 62 4 0.1221 -16.903468743066828 -19.813890288499866 -21.38261799937204 0 0 1
3113 62 4 -0.17 -17.447742354513053 -18.581566581210886 -21.23883596982952 0 0 1
3154 62 6 0.00045 -15.198663469560513 -18.65886117680733 -22.689354773970585 0 0 1
3156 62 3 -0.2584 -15.558526065993984 -20.167727626099992 -21.44849135080779 0 0 1
3157 62 50 0.1019 -14.658435119458845 -19.09578931600552 -21.860001343698567 0 0 1
2397 47 8 0.06525 -15.440948737630038 -21.655822847679108 -19.347391335043906 0 1 0
3150 62 47 -0.2359 -13.332747507542509 -19.866540243190936 -22.156613288019248 0 0 1
3151 62 48 0.09569999999999999 -13.168771169949466 -20.436318659228693 -21.3471886474783 0 0 1
3159 62 6 0.00045 -14.579350620955731 -18.361839633033753 -21.098049169646046 0 0 1
2364 47 4 -0.0955 -15.010125819553881 -22.275531015952513 -18.68245085814786 0 1 0
2396 47 4 -0.17 -14.390952271024172 -23.52629760824828 -19.0604326153583 0 1 0
2393 47 4 0.1221 -13.700768283084788 -24.29448084668789 -18.110699017240087 0 1 0
2363 47 5 0.0422 -17.536170587304447 -20.50032744622044 -18.741472383308626 0 1 0
2367 47 1 -0.0216 -17.35819353566368 -20.650192521682925 -17.733405999940608 0 1 0
2366 47 4 -0.0263 -15.049644119975754 -21.799244058151 -17.29118600880279 0 1 0
2374 47 4 -0.0263 -15.077579337056726 -19.362586857686562 -17.562191202241095 0 1 0
2375 47 8 0.06525 -13.135034580374876 -20.28471191199631 -17.49660819045892 0 1 0
2377 47 4 -0.0955 -13.683971257552678 -19.332175815049546 -17.73673160774873 0 1 0
2395 47 8 0.162999875 -14.477872980660623 -23.72108854324218 -20.106295159365864 0 1 0
2370 47 1 -0.0354 -15.835580460585547 -20.531733554416753 -17.035696061198372 0 1 0
2348 47 4 -0.17 -13.86174833975235 -23.92524110354511 -16.721024479015558 0 1 0
3153 62 45 0.3043 -13.27306297960019 -20.54886841936931 -23.559420860421064 0 0 1
3155 62 46 -5e-05 -14.299434426584694 -20.62806468617414 -23.86338321715564 0 0 1
3148 62 49 -0.4123 -12.392351467396834 -18.78636164142286 -22.001047687877794 0 0 1
8426 170 43 0.2228 11.877824233138078 -23.944131228916007 -23.99060881507662 0 0 1
3152 62 46 -5e-05 -13.115970445338855 -21.660545812411645 -23.35776220396889 0 0 1
2369 47 5 0.0422 -17.88070010256592 -21.6453235143381 -17.561295239625647 0 1 0
7744 155 20 0.043367 -1.348919662634252 -7.674581624525548 -23.87480202496879 0 0 0
618 13 4 0.1221 -19.293846394255418 -24.2441408257525 -15.87046294981139 0 0 0
5031 99 4 -0.17 -19.010205000800635 -0.017226055752303182 -10.166676553016988 0 0 0
3021 60 47 -0.2359 -8.22099395300561 -20.995735819187484 -20.654267541045797 -1 0 0
3023 60 48 0.09569999999999999 -9.072158817241416 -21.55501825468481 -20.39058896858499 -1 0 0
3019 60 50 0.1019 -8.655175556228123 -19.614162243321363 -21.11617826834202 -1 0 0
3018 60 6 0.00045 -9.65281444477158 -19.899369013231336 -21.420377145748905 -1 0 0
3024 60 49 -0.4123 -7.574214598988146 -21.765683125396993 -21.65078747160054 -1 0 0
3045 60 7 0.421 -6.819956575768362 -22.245064850911582 -21.14803070729139 -1 0 0
3022 60 45 0.3043 -7.30099360698226 -20.80487696098387 -19.394027261077188 -1 0 0
3017 60 6 0.00045 -8.795302409179083 -19.138655495505915 -20.245317739713272 -1 0 0
3020 60 46 -5e-05 -6.357004322907429 -20.405341575159078 -19.907252981249805 -1 0 0
3016 60 3 -0.2584 -7.931348598454274 -18.923948045546243 -22.060256030563647 -1 0 0
3025 60 46 -5e-05 -7.702013652703339 -20.026532228803347 -18.81247570170733 -1 0 0
8468 171 41 -0.7026 -7.150286306063389 -22.024459678711604 -18.56175255339873 0 0 1
8470 171 43 0.2228 -6.325900199760117 -23.146458486842672 -19.182063399842892 0 0 1
1645 33 45 0.3043 -8.428676431832548 -22.472111983744416 -18.031249656982403 0 0 0
1643 33 46 -5e-05 -9.294479390477118 -22.300203443402033 -18.567419249147697 0 0 0
232 5 4 -0.0263 2.8996162617134473 -0.26293656556681455 -19.06603748200803 0 0 0
8455 171 21 0.0142 -5.560088155186481 -22.514858636677758 -23.636208129322345 0 0 1
3149 62 7 0.4 -11.557675428893974 -18.9781981408811 -22.376148752445864 0 0 1
8471 171 42 0.0512 -6.8578459815352275 -23.6715402936289 -19.926732062490224 0 0 1
1644 33 47 -0.2359 -8.717976252676436 -21.96314892686843 -16.61445845012097 0 0 0
484 10 1 -0.0216 -2.6644708147888565 -10.938147620938887 -24.11449617255545 0 0 0
1648 33 46 -5e-05 -8.304626527258492 -23.572040410334857 -17.96462106662593 0 0 0
8472 171 18 -0.55 -4.821508891179967 -22.256723071082526 -20.8913291844942 0 0 1
8450 171 44 0.1111 -4.901648088130116 -22.797648774911803 -19.61473528420721 0 0 1
8475 171 21 0.0927 -5.347522586403862 -20.06635701893642 -22.216518402250916 0 0 1
8451 171 21 0.2317 -4.87102130429151 -21.97157598007631 -18.937495201310657 0 0 1
8453 171 17 0.0314 -4.000717898606705 -21.101213810756217 -21.146506578725987 0 0 1
8480 171 18 -0.4376 -4.0527177867583895 -21.07338476944062 -23.55659932138715 0 0 1
8477 171 17 -0.1679 -4.350355341701537 -20.262503644932636 -22.411098653974904 0 0 1
8473 171 21 -0.0068 -4.061010695251852 -20.363143610935026 -20.288517916470884 0 0 1
8478 171 20 0.050367 -4.151227963333056 -18.049721845154775 -23.180582819839405 0 0 1
8476 171 17 0.1059 -3.7622741478371076 -18.849817250643945 -22.425430291658834 0 0 1
8474 171 20 0.050367 -2.689237757520921 -18.860980622295934 -22.551179069122178 0 0 1
8454 171 21 -0.0068 -2.990202511162135 -21.419224623061268 -21.192324371358005 0 0 1
8479 171 20 0.050367 -3.8525559640603753 -18.44046881512748 -21.41588626349411 0 0 1
3862 76 49 -0.4123 0.7089161039190763 -20.376351796098504 -16.14751109862545 0 0 0
2528 50 8 0.06525 -11.661139369754618 -0.18605579932793148 -23.430366565484537 0 0 0
3864 76 47 -0.2359 0.36425123959063654 -21.728171251604973 -16.672855236636057 0 0 0
3865 76 48 0.09569999999999999 -0.6260005135291742 -21.61119247097021 -17.17985333024281 0 0 0
6514 128 49 -0.4123 -0.13682680808560121 -19.629119131324575 -22.898045384109846 0 1 0
8419 170 21 -0.0303 17.822888060698098 -24.124260657188703 -22.19895566378938 0 0 1
4566 90 5 0.0422 0.40353694118676486 -18.60721245922069 -20.461278957301758 0 1 0
8449 171 17 -0.1411 -3.9666385058860136 -23.982745783710918 -19.514075318280206 0 0 1
8452 171 20 0.043367 -2.9512567526924265 -23.595169767896287 -19.266603824411177 0 0 1
8469 171 42 0.0512 -6.178681992358129 -23.828888244079316 -18.420388475801378 0 0 1
4565 90 5 0.0422 -0.09568553877101849 -18.57083913072076 -18.663816759936662 0 1 0
6495 128 4 -0.0955 5.75100988046848 -21.70721136727238 -21.45220754275482 0 1 0
6478 128 8 0.162999875 2.012898614331437 -22.45121642501374 -20.743235768872264 0 1 0
6479 128 4 -0.17 3.1060102410758077 -22.254915391656333 -20.96128101996029 0 1 0
3870 76 3 -0.2584 2.7848323509988298 -22.143618302156295 -17.143841659346766 0 0 0
3871 76 50 0.1019 1.486625648322427 -22.21757834176989 -17.631121756990005 0 0 0
3868 76 6 0.00045 1.2558999543744243 -21.86387710290564 -18.59576654050076 0 0 0
3827 76 4 -0.17 3.1779929857919704 -19.918860549510946 -18.03477113013993 0 0 0
6497 128 4 -0.0263 5.478605317138847 -22.691965249932508 -20.449937993728412 0 1 0
6480 128 4 -0.0955 4.0734120781356005 -22.9021970986986 -20.186065033055176 0 1 0
6481 128 8 0.06525 3.7303696714763888 -23.46522681362389 -19.308762827035057 0 1 0
3826 76 8 0.162999875 2.6872854982496968 -20.262818454684822 -18.969320683196656 0 0 0
3872 76 4 0.1221 3.418098929019461 -20.905077687771204 -17.050007417375365 0 0 0
6522 128 3 -0.2584 2.36969681483685 -21.00594648562162 -22.811217414892173 0 1 0
6527 128 4 -0.17 4.759055142313283 -21.26775171675328 -22.401028933075963 0 1 0
3873 76 6 0.00045 1.2967976518090225 -23.305782304583765 -17.734624063492532 0 0 0
6524 128 4 0.1221 3.4623137648962548 -21.588585348381514 -22.115793342293955 0 1 0
3828 76 4 -0.0955 3.878785991707282 -18.68900560698144 -17.85909737625466 0 0 0
231 5 5 0.0422 3.2155943812803542 -0.3620375512447396 -16.348290965278224 0 0 0
6507 128 8 0.06525 6.488968509391267 -23.556315043108942 -16.76978714883602 0 1 0
6503 128 5 0.0422 6.416250660019902 -21.793454513089664 -17.727875960352044 0 1 0
3845 76 4 -0.0263 4.579729753004596 -18.279561099703535 -16.72616407178526 0 0 0
6526 128 8 0.162999875 5.083393346663055 -20.76944662107793 -23.285685539666645 0 1 0
6501 128 1 -0.0354 6.553002788369458 -23.213873821582183 -19.49883804788665 0 1 0
6515 128 7 0.4 0.23787758099737388 -20.247545875308433 -22.228449018742804 0 1 0
4561 90 5 0.0422 1.501534770557715 -17.949620616291952 -19.211973290162174 0 1 0
4564 90 1 -0.0216 0.4937252558603973 -18.030108768545556 -19.50017082256135 0 1 0
6520 128 6 0.00045 2.983439116018122 -19.035335698378404 -23.16885166254933 0 1 0
6516 128 47 -0.2359 0.9318794782176276 -19.208385524588785 -23.78020924110457 0 1 0
4531 89 6 0.00045 -5.052914198625306 -0.8125477444899083 -9.571505089636853 0 0 0
6523 128 50 0.1019 2.3177867771719853 -19.806277190112823 -23.539703736529262 0 1 0
3027 60 4 -0.0955 -8.245235600558573 -13.36428904531243 -24.083897814877815 -1 0 0
6413 126 7 0.4 0.5328647062631333 -22.003717061059987 -24.262015131242727 0 0 1
218 5 48 0.09569999999999999 -1.4712112657457652 -3.177340227368486 -24.102327559416825 0 0 0
6528 128 8 0.06525 6.824731910223299 -21.480142213542724 -21.69630636042957 0 1 0
6502 128 1 -0.0216 7.1029953514488895 -22.091980026219773 -18.511595440602676 0 1 0
6499 128 5 0.0422 7.415150962086095 -21.096420888973647 -19.02781546842218 0 1 0
6504 128 5 0.0422 8.077672904296023 -22.418298990972513 -18.116468090026498 0 1 0
6496 128 5 0.0422 8.229606722327325 -23.05458462769354 -20.89404075049391 0 1 0
4868 96 5 0.0422 8.354174931028254 -18.37806466993203 -21.119982145046944 0 0 1
4862 96 5 0.0422 7.743652748744886 -19.533605607442745 -22.376736047741407 0 0 1
8425 170 42 0.0512 11.070588354359884 -24.1763235330893 -23.2695991459121 0 0 1
3844 76 5 0.0422 7.05513979928795 -17.914986021869012 -17.316158340219808 0 0 0
3029 60 4 -0.0263 -9.593211419233247 -13.407676222716672 -24.04608821667372 -1 0 0
4866 96 1 -0.0216 7.737951769958514 -18.47455967637905 -22.041797645844287 0 0 1
3476 69 6 0.00045 7.697255799230987 -22.60233122797844 -23.107696234010728 0 1 1
2285 45 46 -5e-05 11.67595749527191 -19.148628309121346 -19.172775078691295 0 0 1
2292 45 6 0.00045 10.582927823443114 -17.75930247093038 -20.659243332894423 0 0 1
5697 112 7 0.421 -9.718866221398462 -20.719968929907456 -23.42182104475796 0 0 1
3477 69 6 0.00045 9.442594889241178 -22.60832842972723 -22.85688947496266 0 1 1
2158 43 46 -5e-05 10.611248048573046 -18.98911478554365 -16.72517720487422 0 0 0
2155 43 45 0.3043 11.58449097553185 -18.533495847159514 -16.58704371358612 0 0 0
3478 69 50 0.1019 8.715968749674026 -23.033788835715583 -23.45720888273654 0 1 1
432 9 1 -0.0354 13.16903264877206 -0.3423172547139046 -23.093525475291564 0 0 0
6498 128 1 -0.0216 7.659762128113385 -23.816139571296564 -20.265887665011103 0 1 0
2264 45 4 -0.0263 15.300217987246619 -15.96620651017429 -23.90576951770605 0 0 1
6759 133 5 0.0422 -10.25890059524868 -7.754084725224406 -24.052634709285112 0 0 1
8405 170 17 -0.1411 12.243942627680852 -21.575999129797644 -23.038933124149718 0 0 1
486 10 5 0.0422 -2.4944730984777443 -9.855217722066762 -23.812053415132198 0 0 0
8428 170 18 -0.55 13.766059793330648 -23.52991772457138 -22.50135770123178 0 0 1
8442 170 44 0.1111 18.65748687659015 -23.140462402789463 -24.03687770154579 0 0 1
8436 170 18 -0.4376 15.749682469937468 -23.850390454901824 -20.681383146702373 0 0 1
9589 196 42 0.0512 14.236071765772905 -18.580626379144284 -16.011343581935883 0 0 0
9584 196 20 -0.0143 16.460566341873943 -19.98466654085074 -18.69619295190767 0 0 0
9585 196 17 0.1209 15.595412123852988 -19.979128910124587 -17.966596681210742 0 0 0
9583 196 20 -0.0143 14.634815351499476 -20.402074936708317 -18.334925102377 0 0 0
8411 170 21 0.0142 14.788647261204197 -21.916744416138634 -20.23660028065143 0 0 1
8429 170 21 -0.0068 12.95004097581424 -23.04660169547879 -20.609977816003653 0 0 1
8437 170 17 0.3844 15.70577069615019 -22.36226146644253 -20.502146057066106 0 0 1
8409 170 17 0.0314 13.372796097412738 -23.876424617011622 -21.16786688073897 0 0 1
8438 170 21 0.0142 16.492513775437693 -22.126071862842068 -19.733377263278257 0 0 1
9588 196 20 -0.0143 15.719327752177584 -20.43234101703409 -16.942749411893153 0 0 0
8414 170 21 0.2007 15.58877480220466 -22.096891523860016 -22.65210116849531 0 0 1
8415 170 17 0.0561 16.175925177533763 -21.6793015206206 -21.833349099659316 0 0 1
9566 196 43 0.2228 14.062807993862627 -18.226286264036464 -17.023142237776568 0 0 0
2288 45 46 -5e-05 13.197207884884882 -18.605374034508113 -19.46343249677691 0 0 1
2286 45 45 0.3043 12.411050137415856 -18.369876384415832 -18.830288624123106 0 0 1
9590 196 41 -0.7026 12.752480694837686 -18.7623009838374 -17.471230305315622 0 0 0
8413 170 17 -0.1301 16.234288679694203 -20.158655300281183 -21.81396236733072 0 0 1
8421 170 21 -0.0303 16.68040233780232 -23.71275947554883 -23.388176753662652 0 0 1
2289 45 3 -0.2584 12.504847607047296 -17.671746180703458 -21.34833266489828 0 0 1
9586 196 44 0.1111 15.25113586731105 -18.534076204860547 -17.847092695673165 0 0 0
8417 170 20 0.058033 17.199008673981545 -19.868544508939426 -21.32843448225459 0 0 1
8416 170 20 0.058033 15.393468391514794 -19.595632127707404 -21.24464343057871 0 0 1
8404 170 20 0.043367 11.967759815837098 -21.022850856807995 -23.95456853993632 0 0 1
8406 170 44 0.1111 12.900258653471454 -22.868548569563824 -23.441022848187174 0 0 1
428 9 4 -0.0263 12.165763356189949 -0.2736724421931065 -24.268965776499204 0 0 0
7888 158 20 0.058033 16.06659705543855 -22.84645781567178 -17.818283718617824 -1 0 0
8412 170 20 0.058033 16.372490923759884 -19.755270126177283 -22.86176874884204 0 0 1
7890 158 18 -0.4246 18.413648557907088 -23.959611512338824 -16.737487187064005 -1 0 0
8420 170 17 0.4 17.584245381168223 -23.365151856314302 -22.953159519125865 0 0 1
3473 69 8 0.162999875 5.852599136831071 -24.076839831856546 -23.11319738344895 0 1 1
8418 170 18 -0.4246 17.52615547167332 -22.14568952965435 -22.08554356560502 0 0 1
5217 103 49 -0.4123 22.759449037006597 -22.022605506989905 -20.115395276233286 0 0 0
5238 103 7 0.421 22.48161112715124 -21.064561377226692 -19.921769557181626 0 0 0
7009 138 5 0.0422 18.60790257475592 -19.28464011829879 -22.723354053810098 0 0 0
5216 103 48 0.09569999999999999 21.885027038924477 -23.772159982196523 -19.64720315354051 0 0 0
5211 103 6 0.00045 20.084416183676716 -21.96069114108175 -19.566832821751873 0 0 0
5214 103 47 -0.2359 22.06505747174012 -22.808267909811242 -19.083929247667037 0 0 0
5209 103 3 -0.2584 21.1116457987387 -20.36722028445918 -18.704223324420035 0 0 0
5212 103 50 0.1019 20.84584894403052 -21.792412319162022 -18.834737513251234 0 0 0
5213 103 46 -5e-05 24.02892355517327 -23.46195746932738 -18.163285517494838 0 0 0
5218 103 46 -5e-05 23.198120703666007 -22.265224258780194 -17.447695599618434 0 0 0
5215 103 45 0.3043 23.01212790920551 -23.199891059020707 -17.966678248890503 0 0 0
5210 103 6 0.00045 20.344382205856164 -22.18042996124702 -17.958131524705237 0 0 0
7918 158 41 -0.7026 22.378897075058177 -23.842777951967378 -16.79515980191905 -1 0 0
5208 103 4 0.1221 21.687221380541615 -19.74548419107123 -17.60867872742397 0 0 0
5236 103 4 -0.17 22.923828649229407 -19.028280822489716 -17.735542879336272 0 0 0
7010 138 5 0.0422 20.600920751131795 -19.984371125667515 -21.404682867633905 0 0 0
7006 138 5 0.0422 21.640993759421328 -19.9740556466382 -22.774898165002703 0 0 0
7008 138 1 -0.0216 21.27001240294056 -19.333523193089018 -22.004405328619683 0 0 0
9358 191 20 0.050367 2.7600898313173303 -23.866699775896645 -10.861727578208377 0 1 0
3887 77 46 -5e-05 -2.3348455849661676 -24.0080840945181 -23.7446700535965 0 0 0
3141 62 8 0.06525 -21.24860931824794 -18.08288294325361 -22.814183997333192 0 0 1
3138 62 5 0.0422 -20.487324412152176 -19.33912432850256 -18.521078094036074 0 0 1
3140 62 8 0.06525 -22.966149949597202 -17.85099170553093 -18.836438355590982 0 0 1
3115 62 8 0.06525 -19.1721684865031 -17.479314557033156 -20.70919997525722 0 0 1
3139 62 4 -0.0263 -21.809763827328773 -18.15527638722377 -20.73824153721702 0 0 1
3143 62 4 -0.0955 -21.81507872282374 -17.547437259923843 -22.07588886071621 0 0 1
3116 62 8 0.162999875 -22.488373415432285 -15.788472079907187 -23.312728056812002 0 0 1
3145 62 4 -0.17 -22.3687267312472 -16.225831331925022 -22.34780950235683 0 0 1
3117 62 4 0.1221 -23.125330135964298 -15.611587197018462 -21.383734796252337 0 0 1
3118 62 3 -0.2584 -23.722521796007744 -14.332137253309421 -21.59373241525115 0 0 1
3119 62 6 0.00045 -23.687519832018374 -13.979079241332022 -23.59688379661497 0 0 1
3121 62 50 0.1019 -23.86898686900598 -13.435792955143189 -22.724484792648546 0 0 1
3144 62 4 -0.17 -23.15813430399561 -16.16884855913574 -20.11124132989715 0 0 1
3120 62 6 0.00045 23.792485660699278 -12.972289477850127 -22.66388797190109 -1 0 1
1085 22 48 0.09569999999999999 -19.4072192193154 -13.366042616408826 -18.208196993779993 1 0 0
1083 22 47 -0.2359 -19.71477035599884 -14.343584590142914 -18.441228765940117 1 0 0
1086 22 49 -0.4123 -20.56778124917888 -14.510840535995133 -19.491992853818466 1 0 0
1107 22 7 0.421 -20.329533766036405 -15.282776965468992 -20.018319850855583 1 0 0
3146 62 8 0.162999875 -23.61705176139146 -15.596267945136079 -19.304500471187406 0 0 1
3142 62 4 -0.0955 -22.63312593894737 -17.46465427082955 -19.801554371015783 0 0 1
1087 22 46 -5e-05 -21.288372658156536 -15.557928418075862 -17.65992422482167 1 0 0
2437 48 48 0.09569999999999999 -22.822671929439533 -13.96794743073831 -18.032207755601668 1 0 0
2436 48 47 -0.2359 -23.070748302076147 -13.236742929487459 -17.21863571444247 1 0 0
1084 22 45 0.3043 -20.5048070793457 -14.964629896192635 -17.20651222996594 1 0 0
1082 22 46 -5e-05 -19.83593738670298 -15.818635699483234 -16.84431050021649 1 0 0
1081 22 50 0.1019 -18.41179717410232 -15.119410752723706 -18.678267194351857 1 0 0
1079 22 6 0.00045 -18.561161140774832 -16.16122212555124 -18.91302383425883 1 0 0
1076 22 8 0.162999875 -18.1710748186993 -12.816244519540804 -21.90719341832739 1 0 0
2443 48 50 0.1019 -23.8811849281722 -12.083710448802446 -17.89734538577119 1 0 0
3147 62 7 0.421 -21.449373538171255 -13.429223084167925 -21.330792398540353 0 0 1
2440 48 6 0.00045 -23.37692667802334 -11.51327729168266 -18.700582050336074 1 0 0
9788 201 41 -0.7026 -20.73887569182015 -13.900065599624998 -16.136629975881384 1 0 0
2439 48 45 0.3043 -21.56468264901836 -12.786364323598765 -16.798352570221482 1 0 0
3112 62 8 0.162999875 -16.85982629467974 -17.73010948420101 -21.122694704156835 0 0 1
1904 38 5 0.0422 -15.69418767703472 -11.757628715908885 -23.879373865260664 0 1 0
1080 22 6 0.00045 -17.656247101705898 -14.940001764485135 -17.876859421697816 1 0 0
2379 47 4 -0.17 -13.020699190765203 -18.1852460527172 -18.176064063408006 0 1 0
1078 22 3 -0.2584 -17.803894237985375 -14.563802705754087 -19.93652686511384 1 0 0
2351 47 8 0.162999875 -15.704756312876752 -16.217181328962536 -18.713451588214784 0 1 0
2380 47 4 -0.17 -15.084043081520418 -17.042299400765785 -18.399256180957195 0 1 0
2355 47 6 0.00045 -14.332329718769055 -14.491943216510029 -18.26232139589002 0 1 0
2353 47 3 -0.2584 -13.075473618723358 -15.951877216642748 -19.050442103894863 0 1 0
2356 47 50 0.1019 -13.704316241770474 -14.66129030845468 -19.177970472083842 0 1 0
2352 47 4 0.1221 -13.765178318515076 -17.03356655185313 -18.506753295512834 0 1 0
2376 47 8 0.06525 -16.7410767826661 -18.028233123202128 -17.59036642880901 0 1 0
2378 47 4 -0.0955 -15.724560400813523 -18.091883787354146 -17.7441733863016 0 1 0
1077 22 4 0.1221 -17.43467807929381 -13.24943151755672 -19.955743480061418 1 0 0
1106 22 8 0.162999875 -16.169603095089542 -13.281709310298192 -18.202702355287393 1 0 0
2354 47 6 0.00045 -14.286882390421352 -14.685020497974682 -20.07480235316733 0 1 0
2362 47 46 -5e-05 -13.431594058080444 -12.216829148894693 -17.603959540411132 0 1 0
2358 47 47 -0.2359 -12.549827660808008 -13.668996594154406 -19.37156745826678 0 1 0
1104 22 4 -0.17 -16.462375509461502 -12.780514136303637 -18.952284772183685 1 0 0
2381 47 8 0.162999875 -11.903179954839064 -18.138142116938074 -18.334008728262837 0 1 0
2359 47 45 0.3043 -12.499603403701723 -12.626293940660188 -18.132934599615528 0 1 0
113 3 46 -5e-05 19.146206503587244 -20.784566716630486 -8.497982550790688 -1 0 0
688 14 1 -0.0216 10.304118558019987 -24.290027048264477 -14.818036652201776 0 0 1
4875 96 8 0.06525 10.180451033501072 -15.737658162721717 -23.94965035676461 0 0 1
7807 156 42 0.0512 -13.14404581782802 -17.783489883471894 -23.981520436423267 0 1 1
7014 138 5 0.0422 19.631531870398696 -19.831883937445816 -23.924777360898357 0 0 0
3051 60 45 0.3043 -4.347023127059803 -7.789609590552228 -24.054924204790208 -1 0 0
3032 60 5 0.0422 -12.347668157033402 -14.025034827089637 -23.92709664842779 -1 0 0
3013 60 8 0.06525 -11.42857028715077 -12.259152934623284 -23.41119097976618 -1 0 0
2360 47 48 0.09569999999999999 -11.612569376522387 -14.263468995151733 -19.385830775485683 0 1 0
3044 60 8 0.162999875 -9.629746354026315 -17.087867863030468 -20.914762276066558 -1 0 0
3043 60 4 -0.17 -8.485891100777465 -17.76234047815511 -24.074917509216803 -1 0 0
3015 60 4 0.1221 -8.672342104408289 -17.87267335078341 -22.687507333659145 -1 0 0
3042 60 4 -0.17 -9.435843980566277 -17.03724206942431 -22.007302083670115 -1 0 0
2361 47 49 -0.4123 -12.707136879322169 -12.91182402276663 -20.571302438450186 0 1 0
2382 47 7 0.421 -11.825621625264674 -12.660105592253384 -20.783835453133467 0 1 0
3040 60 4 -0.0955 -10.070157543617713 -15.97765415016364 -22.6646342339748 -1 0 0
4529 89 46 -5e-05 -8.945445452483623 -0.4172507433168917 -9.70621007386209 0 0 0
3038 60 8 0.06525 -10.484916993732194 -15.177639408469624 -22.059914787988458 -1 0 0
1657 33 1 -0.0216 -13.48516705514442 -24.282433307934436 -10.116781079090309 0 0 0
8118 163 43 0.2228 -10.195401235634899 -12.960777119988107 -17.180841185788033 0 0 0
8117 163 42 0.0512 -9.79991262210416 -13.962080104235433 -17.517904888929294 0 0 0
3214 64 8 0.162999875 11.401062912050378 -1.5202806303130352 -8.435194080168797 0 0 0
4871 96 5 0.0422 9.262896331352316 -19.16182387344533 -23.846525587573872 0 0 1
3012 60 4 -0.0955 -10.335668644353524 -12.268627504831585 -23.637896872636603 -1 0 0
6543 129 49 -0.4123 -13.297329144463152 -9.586248528112083 -8.290061097108488 0 0 0
1131 23 6 0.00045 -4.560847596965761 -24.071893929978422 -15.04449608096758 0 0 0
3286 65 5 0.0422 19.42880803095096 -1.129730899437405 -13.799782450464933 0 0 0
8116 163 41 -0.7026 -11.644027386305789 -13.01382745794826 -16.934732455493553 0 0 0
8097 163 17 -0.1411 -7.920172061641075 -13.193951950793924 -15.885661579342294 0 0 0
8100 163 20 0.043367 -7.788036296819335 -14.248837947300101 -15.99243894375893 0 0 0
4558 90 5 0.0422 -2.1228868110148156 -15.720773191469435 -20.01362042890634 0 1 0
4562 90 5 0.0422 -1.9946991861327987 -17.031705798099022 -18.992919807999506 0 1 0
4560 90 1 -0.0216 -1.5682382327984818 -16.614792585740705 -19.905283384461157 0 1 0
4556 90 5 0.0422 -1.8444586773328808 -17.274832824729195 -20.82697186639958 0 1 0
476 10 5 0.0422 -1.6810821818023278 -13.710978915853586 -22.41917099332284 0 0 0
4570 90 4 -0.0955 -0.17878595971194144 -14.570075220372928 -18.187995762280043 0 1 0
4567 90 4 -0.0263 0.12838488642949386 -15.874282621340766 -18.282623760949832 0 1 0
482 10 5 0.0422 -2.9907699908241554 -13.57700285839251 -23.548485604766597 0 0 0
480 10 1 -0.0216 -2.028512710171615 -13.28130990557562 -23.265242803460815 0 0 0
478 10 5 0.0422 -1.296410748857113 -13.276362005338834 -24.09977421472747 0 0 0
463 10 8 0.06525 -4.754502758746547 -12.828139686953746 -22.694885739800895 0 0 0
4572 90 4 -0.17 -0.02327510672760269 -13.886844956766353 -16.96379014197364 0 1 0
4574 90 8 0.162999875 -0.12497831876119037 -12.900261385662448 -16.820007167723922 0 1 0
4590 90 8 0.06525 -0.710774657932383 -16.155264027298557 -22.433391725291756 0 1 0
4563 90 1 -0.0354 -0.04870461966470785 -16.58118961380908 -19.631874602423714 0 1 0
4568 90 8 0.06525 -0.3597868013195509 -13.86101621808228 -18.98184721724729 0 1 0
2424 48 5 0.0422 21.037515016141377 -10.754454218939584 -23.793955169225697 0 0 0
1139 23 5 0.0422 -5.077451914767309 -16.84587984401667 -16.196277125114328 0 0 0
3677 73 8 0.162999875 -19.577769359179783 -23.13289656717045 -23.8784321747005 1 0 1
5006 99 6 0.00045 -16.248245592126732 -2.321435144488177 -9.072968657117254 0 0 0
4557 90 4 -0.0955 0.24791068281459872 -15.804784124986234 -22.063885932108455 0 1 0
4559 90 4 -0.0263 0.7647511185077356 -15.869004924986996 -20.76220931323284 0 1 0
4543 90 8 0.06525 2.4762397581081537 -15.752494874574115 -19.555157577249197 0 1 0
4588 90 8 0.162999875 0.725491756778581 -15.011683984997372 -24.05574087841688 0 1 0
4586 90 4 0.1221 2.4330270885803316 -14.830921190243638 -22.765938696169737 0 1 0
4584 90 3 -0.2584 3.089430546468087 -14.167521753265017 -23.70834092756794 0 1 0
4589 90 4 -0.17 1.0957690214163556 -15.22415641752686 -23.043862018684738 0 1 0
4541 90 4 -0.17 2.886909961825051 -15.131186942350013 -21.53789809964379 0 1 0